Title: * D:\Workspace\ltspice_pytool\unittest\rl_circuit.asc
Date: Fri Oct 30 10:18:02 2020
Plotname: Transient Analysis
Flags: real forward
No. Variables: 6
No. Points:        10025
Offset:   0.0000000000000000e+000
Command: Linear Technology Corporation LTspice XVII -- Alternate Solver
Variables:
	0	time	time
	1	V(n001)	voltage
	2	V(r1)	voltage
	3	I(L1)	device_current
	4	I(R1)	device_current
	5	I(V1)	device_current
Values:
0		0.000000000000000e+000
	0.000000000000000e+000
	0.000000000000000e+000
	0.000000000000000e+000
	0.000000000000000e+000
	0.000000000000000e+000
1		9.999999717180685e-010
	3.769911077687292e-006
	6.289457638760179e-012
	3.144728819380090e-012
	3.144728819380090e-012
	-3.144728819380090e-012
2		1.011999984718686e-009
	3.815150060910155e-006
	6.365835993441513e-012
	3.182917996720756e-012
	3.182917996720756e-012
	-3.182917996720756e-012
3		1.036000010719920e-009
	3.905628027355878-006
	6.520402260997655e-012
	3.260201130498827e-012
	3.260201130498827e-012
	-3.260201130498827e-012
4		1.084000062722389e-009
	4.086583960247325e-006
	6.840392144836275e-012
	3.420196072418138e-012
	3.420196072418138e-012
	-3.420196072418138e-012
5		1.180000166727326e-009
	4.448495826030213e-006
	7.523801303073747e-012
	3.761900651536874e-012
	3.761900651536874e-012
	-3.761900651536874e-012
6		1.372000374737201e-009
	5.172319557595971e-006
	9.064337147028693e-012
	4.532168573514347e-012
	4.532168573514347e-012
	-4.532168573514347e-012
7		1.756000790756951e-009
	6.619967020727402e-006
	1.284027866677133e-011
	6.420139333385666e-012
	6.420139333385666e-012
	-6.420139333385666e-012
8		2.524001622796451e-009
	9.515261946989820e-006
	2.317163880889101e-011
	1.158581940444551e-011
	1.158581940444551e-011
	-1.158581940444551e-011
9		4.060003286875450e-009
	1.530585179951202e-005
	5.495224970611982e-011
	2.747612485305991e-011
	2.747612485305991e-011
	-2.747612485305991e-011
10		7.132006615033449e-009
	2.688703150453908e-005
	1.629848915725404e-010
	8.149244578627018e-011
	8.149244578627018e-011
	-8.149244578627018e-011
11		1.327601327134945e-008
	5.004939091446947e-005
	5.569347165595255e-010
	2.784673582797627e-010
	2.784673582797627e-010
	-2.784673582797627e-010
12		2.556402658398144e-008
	9.637410973340046e-005
	2.056363419380425e-009
	1.028181709690213e-009
	1.028181709690213e-009
	-1.028181709690213e-009
13		5.014005320924543e-008
	1.890235473640638e-004
	7.901264140652966e-009
	3.950632070326483e-009
	3.950632070326483e-009
	-3.950632070326483e-009
14		9.929210645977342e-008
	3.743224225687607e-004
	3.097465570526726e-008
	1.548732785263363e-008
	1.548732785263363e-008
	-1.548732785263363e-008
15		1.975962129608294e-007
	7.449201725289524e-004
	1.226511346087399e-007
	6.132556730436993e-008
	6.132556730436993e-008
	-6.132556730436993e-008
16		3.942044259629413e-007
	1.486115668871067e-003
	4.880855643528125e-007
	2.440427821764062e-007
	2.440427821764062e-007
	-2.440427821764062e-007
17		7.874208519671651e-007
	2.968506632990529e-003
	1.946981927112795e-006
	9.734909635563973e-007
	9.734909635563973e-007
	-9.734909635563973e-007
18		1.573853703975613e-006
	5.933288332956871e-003
	7.774499265573168e-006
	3.887249632786584e-006
	3.887249632786584e-006
	-3.887249632786584e-006
19		3.146719407992508e-006
	1.186284990769122e-002
	3.104937596643587e-005
	1.552468798321793e-005
	1.552468798321793e-005
	-1.552468798321793e-005
20		6.292450816026299e-006
	2.372195845950625e-002
	1.239264732244591e-004
	6.196323661222954e-005
	6.196323661222954e-005
	-6.196323661222954e-005
21		1.258391363209388e-005
	4.744005879775839e-002
	4.937806462852921e-004
	2.468903231426460e-004
	2.468903231426460e-004
	-2.468903231426460e-004
22		2.516683926422904e-005
	9.487532541846280e-002
	1.960321284502414e-003
	9.801606422512072e-004
	9.801606422512072e-004
	-9.801606422512072e-004
23		5.033269052849937e-005
	1.897383866045326e-001
	7.725874027444869e-003
	3.862937013722435e-003
	3.862937013722435e-003
	-3.862937013722435e-003
24		9.570829878051927e-005
	3.607335038750906e-001
	2.721884603750185e-002
	1.360942301875093e-002
	1.360942301875093e-002
	-1.360942301875093e-002
25		1.612091006637317e-004
	6.073699408223131e-001
	7.450645598232467e-002
	3.725322799116233e-002
	3.725322799116233e-002
	-3.725322799116233e-002
26		2.562811626554879e-004
	9.646548079750736e-001
	1.789613548165795e-001
	8.948067740828977e-002
	8.948067740828977e-002
	-8.948067740828977e-002
27		3.562811626554879e-004
	1.339113475525406e+000
	3.286222614747816e-001
	1.643111307373908e-001
	1.643111307373908e-001
	-1.643111307373908e-001
28		4.562811626554879e-004
	1.711669189552307e+000
	5.127082215253882e-001
	2.563541107626941e-001
	2.563541107626941e-001
	-2.563541107626941e-001
29		5.562811626554879e-004
	2.081792528000332e+000
	7.255871545992972e-001
	3.627935772996486e-001
	3.627935772996486e-001
	-3.627935772996486e-001
30		6.562811626554879e-004
	2.448957525352836e+000
	9.624126735877310e-001
	4.812063367938655e-001
	4.812063367938655e-001
	-4.812063367938655e-001
31		7.562811626554879e-004
	2.812642420057742e+000
	1.219003742216320e+000
	6.095018711081600e-001
	6.095018711081600e-001
	-6.095018711081600e-001
32		8.562811626554879e-004
	3.172330395979269e+000
	1.491742969907859e+000
	7.458714849539296e-001
	7.458714849539296e-001
	-7.458714849539296e-001
33		9.562811626554879e-004
	3.527510316821929e+000
	1.777490674335156e+000
	8.887453371675781e-001
	8.887453371675781e-001
	-8.887453371675781e-001
34		1.056281162655488e-003
	3.877677452483177e+000
	2.073512283584518e+000
	1.036756141792259e+000
	1.036756141792259e+000
	-1.036756141792259e+000
35		1.156281162655488e-003
	4.222334196302505e+000
	2.377417023413843e+000
	1.188708511706922e+000
	1.188708511706922e+000
	-1.188708511706922e+000
36		1.256281162655488e-003
	4.560990772187737e+000
	2.687106151156745e+000
	1.343553075578372e+000
	1.343553075578372e+000
	-1.343553075578372e+000
37		1.356281162655488e-003
	4.893165930613650e+000
	3.000729265245504e+000
	1.500364632622752e+000
	1.500364632622752e+000
	-1.500364632622752e+000
38		1.456281162655488e-003
	5.218387632503888e+000
	3.316647445588608e+000
	1.658323722794304e+000
	1.658323722794304e+000
	-1.658323722794304e+000
39		1.556281162655488e-003
	5.536193720024317e+000
	3.633402171478350e+000
	1.816701085739175e+000
	1.816701085739175e+000
	-1.816701085739175e+000
40		1.656281162655488e-003
	5.846132573334595e+000
	3.949689125680646e+000
	1.974844562840323e+000
	1.974844562840323e+000
	-1.974844562840323e+000
41		1.756281162655488e-003
	6.147763752364680e+000
	4.264336130407782e+000
	2.132168065203891e+000
	2.132168065203891e+000
	-2.132168065203891e+000
42		1.856281162655488e-003
	6.440658622704268e+000
	4.576284576832537e+000
	2.288142288416268e+000
	2.288142288416268e+000
	-2.288142288416268e+000
43		1.956281162655488e-003
	6.724400964715742e+000
	4.884573807915207e+000
	2.442286903957604e+000
	2.442286903957604e+000
	-2.442286903957604e+000
44		2.056281162655488e-003
	6.998587565005058e+000
	5.188327997330550e+000
	2.594163998665275e+000
	2.594163998665275e+000
	-2.594163998665275e+000
45		2.156281162655488e-003
	7.262828789410040e+000
	5.486745137523323e+000
	2.743372568761661e+000
	2.743372568761661e+000
	-2.743372568761661e+000
46		2.256281162655488e-003
	7.516749136691839e+000
	5.779087809355343e+000
	2.889543904677672e+000
	2.889543904677672e+000
	-2.889543904677672e+000
47		2.356281162655488e-003
	7.759987772142743e+000
	6.064675456097424e+000
	3.032337728048712e+000
	3.032337728048712e+000
	-3.032337728048712e+000
48		2.456281162655488e-003
	7.992199040352048e+000
	6.342877927073680e+000
	3.171438963536840e+000
	3.171438963536840e+000
	-3.171438963536840e+000
49		2.556281162655488e-003
	8.213052956401299e+000
	6.613110092274561e+000
	3.306555046137281e+000
	3.306555046137281e+000
	-3.306555046137281e+000
50		2.656281162655488e-003
	8.422235674790924e+000
	6.874827359726025e+000
	3.437413679863012e+000
	3.437413679863012e+000
	-3.437413679863012e+000
51		2.756281162655488e-003
	8.619449935431861e+000
	7.127521953188118e+000
	3.563760976594059e+000
	3.563760976594059e+000
	-3.563760976594059e+000
52		2.856281162655488e-003
	8.804415486068407e+000
	7.370719829578151e+000
	3.685359914789076e+000
	3.685359914789076e+000
	-3.685359914789076e+000
53		2.956281162655488e-003
	8.976869480532013e+000
	7.603978133981889e+000
	3.801989066990945e+000
	3.801989066990945e+000
	-3.801989066990945e+000
54		3.056281162655488e-003
	9.136566852260060e+000
	7.826883105747005e+000
	3.913441552873503e+000
	3.913441552873503e+000
	-3.913441552873503e+000
55		3.156281162655488e-003
	9.283280662548878e+000
	8.039048362383465e+000
	4.019524181191732e+000
	4.019524181191732e+000
	-4.019524181191732e+000
56		3.256281162655488e-003
	9.416802423046034e+000
	8.240113499194875e+000
	4.120056749597437e+000
	4.120056749597437e+000
	-4.120056749597437e+000
57		3.356281162655488e-003
	9.536942392023711e+000
	8.429742952046144e+000
	4.214871476023072e+000
	4.214871476023072e+000
	-4.214871476023072e+000
58		3.456281162655488e-003
	9.643529844012075e+000
	8.607625078700298e+000
	4.303812539350149e+000
	4.303812539350149e+000
	-4.303812539350149e+000
59		3.556281162655488e-003
	9.736413312409511e+000
	8.773471420955190e+000
	4.386735710477595e+000
	4.386735710477595e+000
	-4.386735710477595e+000
60		3.656281162655488e-003
	9.815460804724948e+000
	8.927016115568067e+000
	4.463508057784034e+000
	4.463508057784034e+000
	-4.463508057784034e+000
61		3.756281162655488e-003
	9.880559990146425e+000
	9.068015426833256e+000
	4.534007713416628e+000
	4.534007713416628e+000
	-4.534007713416628e+000
62		3.856281162655488e-003
	9.931618359169304e+000
	9.196247377810542e+000
	4.598123688905271e+000
	4.598123688905271e+000
	-4.598123688905271e+000
63		3.956281162655488e-003
	9.968563355057352e+000
	9.311511460704471e+000
	4.655755730352236e+000
	4.655755730352236e+000
	-4.655755730352236e+000
64		4.056281162655488e-003
	9.991342476949825e+000
	9.413628409864257e+000
	4.706814204932129e+000
	4.706814204932129e+000
	-4.706814204932129e+000
65		4.156281162655488e-003
	9.999923354468066e+000
	9.502440023392644e+000
	4.751220011696322e+000
	4.751220011696322e+000
	-4.751220011696322e+000
66		4.256281162655488e-003
	9.994293793715587e+000
	9.577809021489316e+000
	4.788904510744658e+000
	4.788904510744658e+000
	-4.788904510744658e+000
67		4.356281162655488e-003
	9.974461794606260e+000
	9.639618931468894e+000
	4.819809465734447e+000
	4.819809465734447e+000
	-4.819809465734447e+000
68		4.456281162655488e-003
	9.940455539496004e+000
	9.687773990935089e+000
	4.843886995467544e+000
	4.843886995467544e+000
	-4.843886995467544e+000
69		4.556281162655488e-003
	9.892323353134110e+000
	9.722199061902991e+000
	4.861099530951496e+000
	4.861099530951496e+000
	-4.861099530951496e+000
70		4.656281162655488e-003
	9.830133633991137e+000
	9.742839549776608e+000
	4.871419774888304e+000
	4.871419774888304e+000
	-4.871419774888304e+000
71		4.756281162655488e-003
	9.753974757060934e+000
	9.749661322038410e+000
	4.874830661019205e+000
	4.874830661019205e+000
	-4.874830661019205e+000
72		4.856281162655488e-003
	9.663954948274947e+000
	9.742650622317381e+000
	4.871325311158691e+000
	4.871325311158691e+000
	-4.871325311158691e+000
73		4.956281162655488e-003
	9.560202130707232e+000
	9.721813976193507e+000
	4.860906988096754e+000
	4.860906988096754e+000
	-4.860906988096754e+000
74		5.056281162655488e-003
	9.442863742788790e+000
	9.687178085687636e+000
	4.843589042843818e+000
	4.843589042843818e+000
	-4.843589042843818e+000
75		5.156281162655488e-003
	9.312106528789469e+000
	9.638789709892048e+000
	4.819394854946024e+000
	4.819394854946024e+000
	-4.819394854946024e+000
76		5.256281162655488e-003
	9.168116301865243e+000
	9.576715529631427e+000
	4.788357764815713e+000
	4.788357764815713e+000
	-4.788357764815713e+000
77		5.356281162655488e-003
	9.011097680007547e+000
	9.501041994417600e+000
	4.750520997208800e+000
	4.750520997208800e+000
	-4.750520997208800e+000
78		5.456281162655488e-003
	8.841273795269915e+000
	9.411875150283438e+000
	4.705937575141719e+000
	4.705937575141719e+000
	-4.705937575141719e+000
79		5.556281162655488e-003
	8.658885976685122e+000
	9.309340447359688e+000
	4.654670223679844e+000
	4.654670223679844e+000
	-4.654670223679844e+000
80		5.656281162655488e-003
	8.464193407323425e+000
	9.193582526299881e+000
	4.596791263149941e+000
	4.596791263149941e+000
	-4.596791263149941e+000
81		5.756281162655488e-003
	8.257472755979228e+000
	9.064764982868262e+000
	4.532382491434131e+000
	4.532382491434131e+000
	-4.532382491434131e+000
82		5.856281162655488e-003
	8.039017784009610e+000
	8.923070110188968e+000
	4.461535055094484e+000
	4.461535055094484e+000
	-4.461535055094484e+000
83		5.956281162655488e-003
	7.809138927883337e+000
	8.768698618315051e+000
	4.384349309157526e+000
	4.384349309157526e+000
	-4.384349309157526e+000
84		6.056281162655488e-003
	7.568162858033661e+000
	8.601869330917181e+000
	4.300934665458590e+000
	4.300934665458590e+000
	-4.300934665458590e+000
85		6.156281162655488e-003
	7.316432014641765e+000
	8.422818859016466e+000
	4.211409429508233e+000
	4.211409429508233e+000
	-4.211409429508233e+000
86		6.256281162655488e-003
	7.054304121010527e+000
	8.231801251796453e+000
	4.115900625898227e+000
	4.115900625898227e+000
	-4.115900625898227e+000
87		6.356281162655488e-003
	6.782151675220126e+000
	8.029087624627895e+000
	4.014543812313947e+000
	4.014543812313947e+000
	-4.014543812313947e+000
88		6.456281162655488e-003
	6.500361420787887e+000
	7.814965764528060e+000
	3.907482882264030e+000
	3.907482882264030e+000
	-3.907482882264030e+000
89		6.556281162655488e-003
	6.209333797084595e+000
	7.589739713355686e+000
	3.794869856677843e+000
	3.794869856677843e+000
	-3.794869856677843e+000
90		6.656281162655488e-003
	5.909482370288218e+000
	7.353729329114227e+000
	3.676864664557114e+000
	3.676864664557114e+000
	-3.676864664557114e+000
91		6.756281162655488e-003
	5.601233245683751e+000
	7.107269825800981e+000
	3.553634912900491e+000
	3.553634912900491e+000
	-3.553634912900491e+000
92		6.856281162655488e-003
	5.285024462144282e+000
	6.850711292298786e+000
	3.425355646149393e+000
	3.425355646149393e+000
	-3.425355646149393e+000
93		6.956281162655488e-003
	4.961305369653799e+000
	6.584418190860920e+000
	3.292209095430460e+000
	3.292209095430460e+000
	-3.292209095430460e+000
94		7.056281162655488e-003
	4.630535990756255e+000
	6.308768835789362e+000
	3.154384417894681e+000
	3.154384417894681e+000
	-3.154384417894681e+000
95		7.156281162655488e-003
	4.293186366838370e+000
	6.024154852951975e+000
	3.012077426475988e+000
	3.012077426475988e+000
	-3.012077426475988e+000
96		7.256281162655488e-003
	3.949735890175113e+000
	5.730980620826144e+000
	2.865490310413072e+000
	2.865490310413072e+000
	-2.865490310413072e+000
97		7.356281162655488e-003
	3.600672622687024e+000
	5.429662693794962e+000
	2.714831346897481e+000
	2.714831346897481e+000
	-2.714831346897481e+000
98		7.456281162655488e-003
	3.246492602377535e+000
	5.120629208457845e+000
	2.560314604228922e+000
	2.560314604228922e+000
	-2.560314604228922e+000
99		7.556281162655488e-003
	2.887699138435813e+000
	4.804319273750439e+000
	2.402159636875219e+000
	2.402159636875219e+000
	-2.402159636875219e+000
100		7.656281162655488e-003
	2.524802096006884e+000
	4.481182345699183e+000
	2.240591172849591e+000
	2.240591172849591e+000
	-2.240591172849591e+000
101		7.756281162655488e-003
	2.158317171645335e+000
	4.151677587664127e+000
	2.075838793832064e+000
	2.075838793832064e+000
	-2.075838793832064e+000
102		7.856281162655488e-003
	1.788765160482301e+000
	3.816273216949571e+000
	1.908136608474786e+000
	1.908136608474786e+000
	-1.908136608474786e+000
103		7.956281162655487e-003
	1.416671216147105e+000
	3.475445838686010e+000
	1.737722919343005e+000
	1.737722919343005e+000
	-1.737722919343005e+000
104		8.056281162655488e-003
	1.042564104495185e+000
	3.129679767908833e+000
	1.564839883954416e+000
	1.564839883954416e+000
	-1.564839883954416e+000
105		8.156281162655488e-003
	6.669754522028970e-001
	2.779466340779223e+000
	1.389733170389611e+000
	1.389733170389611e+000
	-1.389733170389611e+000
106		8.256281162655489e-003
	2.904389912969140e-001
	2.425303215910916e+000
	1.212651607955458e+000
	1.212651607955458e+000
	-1.212651607955458e+000
107		8.356281162655488e-003
	-8.651019930817676e-002
	2.067693666782854e+000
	1.033846833391427e+000
	1.033846833391427e+000
	-1.033846833391427e+000
108		8.456281162655488e-003
	-4.633364541863144e-001
	1.707145866232402e+000
	8.535729331162009e-001
	8.535729331162009e-001
	-8.535729331162009e-001
109		8.556281162655489e-003
	-8.395042826098287e-001
	1.344172164036741e+000
	6.720860820183704e-001
	6.720860820183704e-001
	-6.720860820183704e-001
110		8.656281162655488e-003
	-1.214479129511074e+000
	9.792883586012661e-001
	4.896441793006330e-001
	4.896441793006330e-001
	-4.896441793006330e-001
111		8.756281162655488e-003
	-1.587728135114412e+000
	6.130129637833933e-001
	3.065064818916967e-001
	3.065064818916967e-001
	-3.065064818916967e-001
112		8.856281162655489e-003
	-1.958720892159141e+000
	2.458664718881032e-001
	1.229332359440516e-001
	1.229332359440516e-001
	-1.229332359440516e-001
113		8.956281162655488e-003
	-2.326930199637217e+000
	-1.216293861221577e-001
	-6.081469306107886e-002
	-6.081469306107886e-002
	6.081469306107886e-002
114		9.056281162655487e-003
	-2.691832811974726e+000
	-4.889523821559081e-001
	-2.444761910779540e-001
	-2.444761910779540e-001
	2.444761910779540e-001
115		9.156281162655489e-003
	-3.052910182592500e+000
	-8.555805332090141e-001
	-4.277902666045070e-001
	-4.277902666045070e-001
	4.277902666045070e-001
116		9.256281162655488e-003
	-3.409649200789162e+000
	-1.220992843217138e+000
	-6.104964216085690e-001
	-6.104964216085690e-001
	6.104964216085690e-001
117		9.356281162655487e-003
	-3.761542920899522e+000
	-1.584670043492447e+000
	-7.923350217462236e-001
	-7.923350217462236e-001
	7.923350217462236e-001
118		9.456281162655488e-003
	-4.108091282692083e+000
	-1.946095330694424e+000
	-9.730476653472119e-001
	-9.730476653472119e-001
	9.730476653472119e-001
119		9.556281162655488e-003
	-4.448801821982025e+000
	-2.304755101287799e+000
	-1.152377550643899e+000
	-1.152377550643899e+000
	1.152377550643899e+000
120		9.656281162655487e-003
	-4.783190370449741e+000
	-2.660139681445371e+000
	-1.330069840722685e+000
	-1.330069840722685e+000
	1.330069840722685e+000
121		9.756281162655488e-003
	-5.110781743670505e+000
	-3.011744051359706e+000
	-1.505872025679853e+000
	-1.505872025679853e+000
	1.505872025679853e+000
122		9.856281162655488e-003
	-5.431110416377559e+000
	-3.359068562935480e+000
	-1.679534281467740e+000
	-1.679534281467740e+000
	1.679534281467740e+000
123		9.956281162655487e-003
	-5.743721183998980e+000
	-3.701619649843466e+000
	-1.850809824921733e+000
	-1.850809824921733e+000
	1.850809824921733e+000
124		1.005628116265549e-002
	-6.048169809528287e+000
	-4.038910528927888e+000
	-2.019455264463944e+000
	-2.019455264463944e+000
	2.019455264463944e+000
125		1.015628116265549e-002
	-6.344023654809526e+000
	-4.370461891971038e+000
	-2.185230945985519e+000
	-2.185230945985519e+000
	2.185230945985519e+000
126		1.025628116265549e-002
	-6.630862295339782e+000
	-4.695802586832657e+000
	-2.347901293416328e+000
	-2.347901293416328e+000
	2.347901293416328e+000
127		1.035628116265549e-002
	-6.908278117715395e+000
	-5.014470286996588e+000
	-2.507235143498294e+000
	-2.507235143498294e+000
	2.507235143498294e+000
128		1.045628116265549e-002
	-7.175876898872893e+000
	-5.326012148573633e+000
	-2.663006074286817e+000
	-2.663006074286817e+000
	2.663006074286817e+000
129		1.055628116265549e-002
	-7.433278366301566e+000
	-5.629985453827294e+000
	-2.814992726913647e+000
	-2.814992726913647e+000
	2.814992726913647e+000
130		1.065628116265549e-002
	-7.680116738431492e+000
	-5.925958240308193e+000
	-2.962979120154096e+000
	-2.962979120154096e+000
	2.962979120154096e+000
131		1.075628116265549e-002
	-7.916041244429173e+000
	-6.213509914703355e+000
	-3.106754957351678e+000
	-3.106754957351678e+000
	3.106754957351678e+000
132		1.085628116265549e-002
	-8.140716622662067e+000
	-6.492231850528261e+000
	-3.246115925264130e+000
	-3.246115925264130e+000
	3.246115925264130e+000
133		1.095628116265549e-002
	-8.353823597123743e+000
	-6.761727968812456e+000
	-3.380863984406228e+000
	-3.380863984406228e+000
	3.380863984406228e+000
134		1.105628116265549e-002
	-8.555059331142523e+000
	-7.021615300953689e+000
	-3.510807650476845e+000
	-3.510807650476845e+000
	3.510807650476845e+000
135		1.115628116265549e-002
	-8.744137857728981e+000
	-7.271524532940849e+000
	-3.635762266470425e+000
	-3.635762266470425e+000
	3.635762266470425e+000
136		1.125628116265549e-002
	-8.920790485950693e+000
	-7.511100530172414e+000
	-3.755550265086207e+000
	-3.755550265086207e+000
	3.755550265086207e+000
137		1.135628116265549e-002
	-9.084766182756725e+000
	-7.740002842124738e+000
	-3.870001421062369e+000
	-3.870001421062369e+000
	3.870001421062369e+000
138		1.145628116265549e-002
	-9.235831929709358e+000
	-7.957906186153038e+000
	-3.978953093076519e+000
	-3.978953093076519e+000
	3.978953093076519e+000
139		1.155628116265549e-002
	-9.373773054116040e+000
	-8.164500909737683e+000
	-4.082250454868841e+000
	-4.082250454868841e+000
	4.082250454868841e+000
140		1.165628116265549e-002
	-9.498393534091004e+000
	-8.359493430518919e+000
	-4.179746715259459e+000
	-4.179746715259459e+000
	4.179746715259459e+000
141		1.175628116265549e-002
	-9.609516277113126e+000
	-8.542606653494788e+000
	-4.271303326747394e+000
	-4.271303326747394e+000
	4.271303326747394e+000
142		1.185628116265549e-002
	-9.706983371684064e+000
	-8.713580364789408e+000
	-4.356790182394704e+000
	-4.356790182394704e+000
	4.356790182394704e+000
143		1.195628116265549e-002
	-9.790656311729149e+000
	-8.872171601432063e+000
	-4.436085800716032e+000
	-4.436085800716032e+000
	4.436085800716032e+000
144		1.205628116265549e-002
	-9.860416193422093e+000
	-9.018154996621686e+000
	-4.509077498310843e+000
	-4.509077498310843e+000
	4.509077498310843e+000
145		1.215628116265549e-002
	-9.916163884153828e+000
	-9.151323099986083e+000
	-4.575661549993042e+000
	-4.575661549993042e+000
	4.575661549993042e+000
146		1.225628116265549e-002
	-9.957820163405380e+000
	-9.271486672380847e+000
	-4.635743336190424e+000
	-4.635743336190424e+000
	4.635743336190424e+000
147		1.235628116265549e-002
	-9.985325835324549e+000
	-9.378474954809006e+000
	-4.689237477404503e+000
	-4.689237477404503e+000
	4.689237477404503e+000
148		1.245628116265549e-002
	-9.998641812846460e+000
	-9.472135911079320e+000
	-4.736067955539660e+000
	-4.736067955539660e+000
	4.736067955539660e+000
149		1.255628116265549e-002
	-9.997749173238420e+000
	-9.552336443858376e+000
	-4.776168221929188e+000
	-4.776168221929188e+000
	4.776168221929188e+000
150		1.265628116265549e-002
	-9.982649184990153e+000
	-9.618962583809463e+000
	-4.809481291904731e+000
	-4.809481291904731e+000
	4.809481291904731e+000
151		1.275628116265549e-002
	-9.953363306011218e+000
	-9.671919651549498e+000
	-4.835959825774749e+000
	-4.835959825774749e+000
	4.835959825774749e+000
152		1.285628116265549e-002
	-9.909933153138132e+000
	-9.711132392193807e+000
	-4.855566196096904e+000
	-4.855566196096904e+000
	4.855566196096904e+000
153		1.295628116265549e-002
	-9.852420442994571e+000
	-9.736545082297623e+000
	-4.868272541148811e+000
	-4.868272541148811e+000
	4.868272541148811e+000
154		1.305628116265549e-002
	-9.780906904288681e+000
	-9.748121609042288e+000
	-4.874060804521144e+000
	-4.874060804521144e+000
	4.874060804521144e+000
155		1.315628116265549e-002
	-9.695494161672098e+000
	-9.745845521553685e+000
	-4.872922760776842e+000
	-4.872922760776842e+000
	4.872922760776842e+000
156		1.325628116265549e-002
	-9.596303591325762e+000
	-9.729720054279925e+000
	-4.864860027139963e+000
	-4.864860027139963e+000
	4.864860027139963e+000
157		1.335628116265549e-002
	-9.483476148477733e+000
	-9.699768122395119e+000
	-4.849884061197559e+000
	-4.849884061197559e+000
	4.849884061197559e+000
158		1.345628116265549e-002
	-9.357172167098074e+000
	-9.656032289235730e+000
	-4.828016144617865e+000
	-4.828016144617865e+000
	4.828016144617865e+000
159		1.355628116265549e-002
	-9.217571132055536e+000
	-9.598574705815821e+000
	-4.799287352907911e+000
	-4.799287352907911e+000
	4.799287352907911e+000
160		1.365628116265549e-002
	-9.064871424059721e+000
	-9.527477022507107e+000
	-4.763738511253553e+000
	-4.763738511253553e+000
	4.763738511253553e+000
161		1.375628116265549e-002
	-8.899290037751232e+000
	-9.442840273009358e+000
	-4.721420136504679e+000
	-4.721420136504679e+000
	4.721420136504679e+000
162		1.385628116265549e-002
	-8.721062273340435e+000
	-9.344784730776022e+000
	-4.672392365388011e+000
	-4.672392365388011e+000
	4.672392365388011e+000
163		1.395628116265549e-002
	-8.530441402232977e+000
	-9.233449738099107e+000
	-4.616724869049554e+000
	-4.616724869049554e+000
	4.616724869049554e+000
164		1.405628116265549e-002
	-8.327698307117240e+000
	-9.108993508096178e+000
	-4.554496754048089e+000
	-4.554496754048089e+000
	4.554496754048089e+000
165		1.415628116265549e-002
	-8.113121097025251e+000
	-8.971592899880889e+000
	-4.485796449940445e+000
	-4.485796449940445e+000
	4.485796449940445e+000
166		1.425628116265549e-002
	-7.887014697913970e+000
	-8.821443167236525e+000
	-4.410721583618263e+000
	-4.410721583618263e+000
	4.410721583618263e+000
167		1.435628116265549e-002
	-7.649700419348799e+000
	-8.658757681149703e+000
	-4.329378840574852e+000
	-4.329378840574852e+000
	4.329378840574852e+000
168		1.445628116265549e-002
	-7.401515497905146e+000
	-8.483767626598553e+000
	-4.241883813299276e+000
	-4.241883813299276e+000
	4.241883813299276e+000
169		1.455628116265549e-002
	-7.142812617936761e+000
	-8.296721674026205e+000
	-4.148360837013103e+000
	-4.148360837013103e+000
	4.148360837013103e+000
170		1.465628116265549e-002
	-6.873959410391995e+000
	-8.097885625966514e+000
	-4.048942812983257e+000
	-4.048942812983257e+000
	4.048942812983257e+000
171		1.475628116265549e-002
	-6.595337930390114e+000
	-7.887542039324113e+000
	-3.943771019662056e+000
	-3.943771019662056e+000
	3.943771019662056e+000
172		1.485628116265549e-002
	-6.307344114300022e+000
	-7.665989823845597e+000
	-3.832994911922798e+000
	-3.832994911922798e+000
	3.832994911922798e+000
173		1.495628116265549e-002
	-6.010387217093072e+000
	-7.433543817352424e+000
	-3.716771908676212e+000
	-3.716771908676212e+000
	3.716771908676212e+000
174		1.505628116265549e-002
	-5.704889230769336e+000
	-7.190534338339157e+000
	-3.595267169169579e+000
	-3.595267169169579e+000
	3.595267169169579e+000
175		1.515628116265549e-002
	-5.391284284683852e+000
	-6.937306716572799e+000
	-3.468653358286399e+000
	-3.468653358286399e+000
	3.468653358286399e+000
176		1.525628116265549e-002
	-5.070018028625112e+000
	-6.674220802360312e+000
	-3.337110401180156e+000
	-3.337110401180156e+000
	3.337110401180156e+000
177		1.535628116265549e-002
	-4.741546999522290e+000
	-6.401650455181640e+000
	-3.200825227590820e+000
	-3.200825227590820e+000
	3.200825227590820e+000
178		1.545628116265549e-002
	-4.406337972681277e+000
	-6.119983012414936e+000
	-3.059991506207468e+000
	-3.059991506207468e+000
	3.059991506207468e+000
179		1.555628116265549e-002
	-4.064867298471460e+000
	-5.829618738908950e+000
	-2.914809369454475e+000
	-2.914809369454475e+000
	2.914809369454475e+000
180		1.565628116265549e-002
	-3.717620225405777e+000
	-5.530970258184784e+000
	-2.765485129092392e+000
	-2.765485129092392e+000
	2.765485129092392e+000
181		1.575628116265549e-002
	-3.365090210575987e+000
	-5.224461966075289e+000
	-2.612230983037644e+000
	-2.612230983037644e+000
	2.612230983037644e+000
182		1.585628116265549e-002
	-3.007778218423205e+000
	-4.910529427635368e+000
	-2.455264713817684e+000
	-2.455264713817684e+000
	2.455264713817684e+000
183		1.595628116265549e-002
	-2.646192008839957e+000
	-4.589618758180199e+000
	-2.294809379090100e+000
	-2.294809379090100e+000
	2.294809379090100e+000
184		1.605628116265549e-002
	-2.280845415615639e+000
	-4.262185989330961e+000
	-2.131092994665480e+000
	-2.131092994665480e+000
	2.131092994665480e+000
185		1.615628116265549e-002
	-1.912257616250566e+000
	-3.928696420968948e+000
	-1.964348210484474e+000
	-1.964348210484474e+000
	1.964348210484474e+000
186		1.625628116265549e-002
	-1.540952394176309e+000
	-3.589623960018982e+000
	-1.794811980009491e+000
	-1.794811980009491e+000
	1.794811980009491e+000
187		1.635628116265549e-002
	-1.167457394430829e+000
	-3.245450447001736e+000
	-1.622725223500868e+000
	-1.622725223500868e+000
	1.622725223500868e+000
188		1.645628116265549e-002
	-7.923033738459784e-001
	-2.896664971311991e+000
	-1.448332485655996e+000
	-1.448332485655996e+000
	1.448332485655996e+000
189		1.655628116265549e-002
	-4.160234468129771e-001
	-2.543763176195847e+000
	-1.271881588097924e+000
	-1.271881588097924e+000
	1.271881588097924e+000
190		1.665628116265549e-002
	-3.915232769774183e-002
	-2.187246554414545e+000
	-1.093623277207272e+000
	-1.093623277207272e+000
	1.093623277207272e+000
191		1.675628116265549e-002
	3.377744290175123e-001
	-1.827621735595814e+000
	-9.138108677979070e-001
	-9.138108677979070e-001
	9.138108677979070e-001
192		1.685628116265549e-002
	7.142211897865226e-001
	-1.465399766285451e+000
	-7.326998831427255e-001
	-7.326998831427255e-001
	7.326998831427255e-001
193		1.695628116265549e-002
	1.089653003163496e+000
	-1.101095383722211e+000
	-5.505476918611056e-001
	-5.505476918611056e-001
	5.505476918611056e-001
194		1.705628116265549e-002
	1.463536359998454e+000
	-7.352262843680297e-001
	-3.676131421840149e-001
	-3.676131421840149e-001
	3.676131421840149e-001
195		1.715628116265549e-002
	1.835339951582870e+000
	-3.683123882330184e-001
	-1.841561941165092e-001
	-1.841561941165092e-001
	1.841561941165092e-001
196		1.725628116265549e-002
	2.204535424668439e+000
	-8.751000406861158e-004
	-4.375500203430579e-004
	-4.375500203430579e-004
	4.375500203430579e-004
197		1.735628116265549e-002
	2.570598132285982e+000
	3.665634317167071e-001