Title: * C:\Users\dongh\Documents\Workspace\ltspice_pytool\unittest\rl_circuit.asc
Date: Sat Jan 30 12:40:12 2021
Plotname: AC Analysis
Flags: complex forward log
No. Variables: 6
No. Points:         1330
Offset:   0.0000000000000000e+000
Command: Linear Technology Corporation LTspice XVII
Variables:
	0	frequency	frequency
	1	V(n001)	voltage
	2	V(r1)	voltage
	3	I(L1)	device_current
	4	I(R1)	device_current
	5	I(V1)	device_current
Values:
0		1.000000000000000e+000,	0.000000000000000e+000
	1.000000000000000e+001,0.000000000000000e+000
	9.994860591432502e+000,-3.766090627609992e-002
	4.997430295716227e+000,-1.883045313807352e-002
	4.997430295716251e+000,-1.883045313804996e-002
	-4.997430295716221e+000,1.883045313803677e-002
1		1.006955550056719e+000,0.000000000000000e+000
	1.000000000000000e+001,-6.938893903907228e-018
	9.994858610508681e+000,-3.792285107879296e-002
	4.997429305254372e+000,-1.896142553939395e-002
	4.997429305254340e+000,-1.896142553939648e-002
	-4.997429305254357e+000,1.896142553931668e-002
2		1.013959479790029e+000,0.000000000000000e+000
	9.999999999999998e+000,0.000000000000000e+000
	9.994856601932995e+000,-3.818661769374648e-002
	4.997428300966469e+000,-1.909330884669080e-002
	4.997428300966497e+000,-1.909330884687324e-002
	-4.997428300966504e+000,1.909330884672044e-002
3		1.021012125707194e+000,0.000000000000000e+000
	1.000000000000000e+001,0.000000000000000e+000
	9.994854565319461e+000,-3.845221878934962e-002
	4.997427282659740e+000,-1.922610939478664e-002
	4.997427282659730e+000,-1.922610939467481e-002
	-4.997427282659749e+000,1.922610939502078e-002
4		1.028113826656067e+000,0.000000000000000e+000
	9.999999999999998e+000,0.000000000000000e+000
	9.994852500276709e+000,-3.871966712203605e-002
	4.997426250138336e+000,-1.935983356098048e-002
	4.997426250138354e+000,-1.935983356101803e-002
	-4.997426250138322e+000,1.935983356091242e-002
5		1.035264923841378e+000,0.000000000000000e+000
	1.000000000000000e+001,0.000000000000000e+000
	9.994850406407908e+000,-3.898897553689690e-002
	4.997425203203961e+000,-1.949448776843277e-002
	4.997425203203954e+000,-1.949448776844845e-002
	-4.997425203203942e+000,1.949448776841222e-002
6		1.042465760841122e+000,0.000000000000000e+000
	1.000000000000000e+001,0.000000000000000e+000
	9.994848283310684e+000,-3.926015696829461e-002
	4.997424141655332e+000,-1.963007848401588e-002
	4.997424141655342e+000,-1.963007848414730e-002
	-4.997424141655317e+000,1.963007848402754e-002
7		1.049716683623068e+000,0.000000000000000e+000
	1.000000000000000e+001,0.000000000000000e+000
	9.994846130577045e+000,-3.953322444048363e-002
	4.997423065288543e+000,-1.976661222028620e-002
	4.997423065288523e+000,-1.976661222024182e-002
	-4.997423065288533e+000,1.976661222030884e-002
8		1.057018040561381e+000,0.000000000000000e+000
	1.000000000000000e+001,0.000000000000000e+000
	9.994843947793310e+000,-3.980819106823297e-002
	4.997421973896658e+000,-1.990409553422667e-002
	4.997421973896655e+000,-1.990409553411648e-002
	-4.997421973896650e+000,1.990409553414452e-002
9		1.064370182453361e+000,0.000000000000000e+000
	1.000000000000000e+001,0.000000000000000e+000
	9.994841734540024e+000,-4.008507005745565e-002
	4.997420867270044e+000,-2.004253502893005e-002
	4.997420867270012e+000,-2.004253502872783e-002
	-4.997420867270020e+000,2.004253502889242e-002
10		1.071773462536294e+000,0.000000000000000e+000
	1.000000000000000e+001,6.938893903907228e-018
	9.994839490391879e+000,-4.036387470583894e-002
	4.997419745195951e+000,-2.018193735298413e-002
	4.997419745195940e+000,-2.018193735291947e-002
	-4.997419745195942e+000,2.018193735295882e-002
11		1.079228236504428e+000,0.000000000000000e+000
	1.000000000000000e+001,-6.938893903907228e-018
	9.994837214917617e+000,-4.064461840348297e-002
	4.997418607458831e+000,-2.032230920185052e-002
	4.997418607458808e+000,-2.032230920174149e-002
	-4.997418607458837e+000,2.032230920193001e-002
12		1.086734862526059e+000,0.000000000000000e+000
	9.999999999999998e+000,0.000000000000000e+000
	9.994834907679975e+000,-4.092731463354037e-002
	4.997417453839985e+000,-2.046365731697875e-002
	4.997417453839987e+000,-2.046365731677019e-002
	-4.997417453839982e+000,2.046365731686706e-002
13		1.094293701260741e+000,0.000000000000000e+000
	9.999999999999998e+000,-6.938893903907228e-018
	9.994832568235587e+000,-4.121197697286388e-002
	4.997416284117811e+000,-2.060598848648121e-002
	4.997416284117794e+000,-2.060598848643194e-002
	-4.997416284117814e+000,2.060598848657946e-002
14		1.101905115876612e+000,0.000000000000000e+000
	1.000000000000000e+001,0.000000000000000e+000
	9.994830196134894e+000,-4.149861909265293e-002
	4.997415098067463e+000,-2.074930954636489e-002
	4.997415098067447e+000,-2.074930954632647e-002
	-4.997415098067465e+000,2.074930954634624e-002
15		1.109569472067846e+000,0.000000000000000e+000
	1.000000000000000e+001,6.938893903907228e-018
	9.994827790922054e+000,-4.178725475911124e-002
	4.997413895461040e+000,-2.089362737961442e-002
	4.997413895461027e+000,-2.089362737955562e-002
	-4.997413895461041e+000,2.089362737947909e-002
16		1.117287138072221e+000,0.000000000000000e+000
	1.000000000000000e+001,6.938893903907228e-018
	9.994825352134876e+000,-4.207789783410437e-002
	4.997412676067447e+000,-2.103894891712121e-002
	4.997412676067438e+000,-2.103894891705219e-002
	-4.997412676067442e+000,2.103894891718028e-002
17		1.125058484688811e+000,0.000000000000000e+000
	1.000000000000000e+001,0.000000000000000e+000
	9.994822879304712e+000,-4.237056227582331e-002
	4.997411439652359e+000,-2.118528113801388e-002
	4.997411439652356e+000,-2.118528113791166e-002
	-4.997411439652364e+000,2.118528113783214e-002
18		1.132883885295800e+000,0.000000000000000e+000
	1.000000000000000e+001,0.000000000000000e+000
	9.994820371956378e+000,-4.266526213945272e-002
	4.997410185978176e+000,-2.133263106984817e-002
	4.997410185978189e+000,-2.133263106972636e-002
	-4.997410185978168e+000,2.133263106969707e-002
19		1.140763715868425e+000,0.000000000000000e+000
	1.000000000000000e+001,6.938893903907228e-018
	9.994817829608049e+000,-4.296201157784410e-002
	4.997408914804033e+000,-2.148100578886014e-002
	4.997408914804025e+000,-2.148100578892205e-002
	-4.997408914804034e+000,2.148100578878598e-002
20		1.148698354997037e+000,0.000000000000000e+000
	1.000000000000000e+001,0.000000000000000e+000
	9.994815251771176e+000,-4.326082484219118e-002
	4.997407625885628e+000,-2.163041242132668e-002
	4.997407625885588e+000,-2.163041242109559e-002
	-4.997407625885622e+000,2.163041242127406e-002
21		1.156688183905289e+000,0.000000000000000e+000
	1.000000000000000e+001,0.000000000000000e+000
	9.994812637950405e+000,-4.356171628271441e-002
	4.997406318975186e+000,-2.178085814126318e-002
	4.997406318975203e+000,-2.178085814135720e-002
	-4.997406318975202e+000,2.178085814136921e-002
22		1.164733586468458e+000,0.000000000000000e+000
	1.000000000000000e+001,0.000000000000000e+000
	9.994809987643450e+000,-4.386470034934670e-002
	4.997404993821713e+000,-2.193235017452011e-002
	4.997404993821725e+000,-2.193235017467335e-002
	-4.997404993821721e+000,2.193235017458051e-002
23		1.172834949231881e+000,0.000000000000000e+000
	1.000000000000000e+001,0.000000000000000e+000
	9.994807300341023e+000,-4.416979159242385e-002
	4.997403650170512e+000,-2.208489579623574e-002
	4.997403650170512e+000,-2.208489579621193e-002
	-4.997403650170505e+000,2.208489579629713e-002
24		1.180992661429532e+000,0.000000000000000e+000
	1.000000000000000e+001,0.000000000000000e+000
	9.994804575526727e+000,-4.447700466338217e-002
	4.997402287763334e+000,-2.223850233157554e-002
	4.997402287763364e+000,-2.223850233169109e-002
	-4.997402287763322e+000,2.223850233164626e-002
25		1.189207115002723e+000,0.000000000000000e+000
	9.999999999999998e+000,-6.938893903907228e-018
	9.994801812676956e+000,-4.478635431545919e-002
	4.997400906338490e+000,-2.239317715769973e-002
	4.997400906338478e+000,-2.239317715772959e-002
	-4.997400906338481e+000,2.239317715762468e-002
26		1.197478704618931e+000,0.000000000000000e+000
	9.999999999999998e+000,-6.938893903907228e-018
	9.994799011260803e+000,-4.509785540439779e-002
	4.997399505630374e+000,-2.254892770203565e-002
	4.997399505630401e+000,-2.254892770219889e-002
	-4.997399505630379e+000,2.254892770196193e-002
27		1.205807827690763e+000,0.000000000000000e+000
	1.000000000000000e+001,-6.938893903907228e-018
	9.994796170739939e+000,-4.541152288915968e-002
	4.997398085369948e+000,-2.270576144467640e-002
	4.997398085369969e+000,-2.270576144457984e-002
	-4.997398085369937e+000,2.270576144468350e-002
28		1.214194884395049e+000,0.000000000000000e+000
	1.000000000000000e+001,-6.938893903907228e-018
	9.994793290568532e+000,-4.572737183263954e-002
	4.997396645284274e+000,-2.286368591637844e-002
	4.997396645284266e+000,-2.286368591631977e-002
	-4.997396645284269e+000,2.286368591626342e-002
29		1.222640277692071e+000,0.000000000000000e+000
	1.000000000000000e+001,6.938893903907228e-018
	9.994790370193122e+000,-4.604541740238415e-002
	4.997395185096573e+000,-2.302270870126266e-002
	4.997395185096561e+000,-2.302270870119208e-002
	-4.997395185096583e+000,2.302270870131906e-002
30		1.231144413344919e+000,0.000000000000000e+000
	1.000000000000000e+001,0.000000000000000e+000
	9.994787409052538e+000,-4.636567487132038e-002
	4.997393704526265e+000,-2.318283743562810e-002
	4.997393704526269e+000,-2.318283743566019e-002
	-4.997393704526268e+000,2.318283743562688e-002
31		1.239707699938989e+000,0.000000000000000e+000
	9.999999999999998e+000,6.938893903907228e-018
	9.994784406577756e+000,-4.668815961848412e-002
	4.997392203288881e+000,-2.334407980934927e-002
	4.997392203288878e+000,-2.334407980924206e-002
	-4.997392203288874e+000,2.334407980939090e-002
32		1.248330548901615e+000,0.000000000000000e+000
	9.999999999999998e+000,-6.938893903907228e-018
	9.994781362191834e+000,-4.701288712975635e-002
	4.997390681095928e+000,-2.350644356500398e-002
	4.997390681095917e+000,-2.350644356487817e-002
	-4.997390681095925e+000,2.350644356496900e-002
33		1.257013374521831e+000,0.000000000000000e+000
	9.999999999999998e+000,-1.387778780781446e-017
	9.994778275309763e+000,-4.733987299860313e-002
	4.997389137654882e+000,-2.366993649931137e-002
	4.997389137654881e+000,-2.366993649930156e-002
	-4.997389137654888e+000,2.366993649943083e-002
34		1.265756593970283e+000,0.000000000000000e+000
	1.000000000000000e+001,6.938893903907228e-018
	9.994775145338375e+000,-4.766913292682182e-002
	4.997387572669186e+000,-2.383456646325621e-002
	4.997387572669187e+000,-2.383456646341091e-002
	-4.997387572669184e+000,2.383456646327886e-002
35		1.274560627319265e+000,0.000000000000000e+000
	1.000000000000000e+001,-6.938893903907228e-018
	9.994771971676208e+000,-4.800068272529102e-002
	4.997385985838097e+000,-2.400034136262808e-002
	4.997385985838104e+000,-2.400034136264551e-002
	-4.997385985838108e+000,2.400034136272211e-002
36		1.283425897562907e+000,0.000000000000000e+000
	1.000000000000000e+001,-6.938893903907228e-018
	9.994768753713428e+000,-4.833453831472823e-002
	4.997384376856737e+000,-2.416726915745493e-002
	4.997384376856714e+000,-2.416726915736412e-002
	-4.997384376856714e+000,2.416726915740242e-002
37		1.292352830637496e+000,0.000000000000000e+000
	1.000000000000000e+001,0.000000000000000e+000
	9.994765490831680e+000,-4.867071572644863e-002
	4.997382745415848e+000,-2.433535786316521e-002
	4.997382745415840e+000,-2.433535786322431e-002
	-4.997382745415866e+000,2.433535786323660e-002
38		1.301341855441937e+000,0.000000000000000e+000
	1.000000000000000e+001,0.000000000000000e+000
	9.994762182403974e+000,-4.900923110313302e-002
	4.997381091201974e+000,-2.450461555151229e-002
	4.997381091201987e+000,-2.450461555156651e-002
	-4.997381091201980e+000,2.450461555142169e-002
39		1.310393403858367e+000,0.000000000000000e+000
	1.000000000000000e+001,0.000000000000000e+000
	9.994758827794575e+000,-4.935010069959958e-002
	4.997379413897262e+000,-2.467505034972883e-002
	4.997379413897288e+000,-2.467505034979979e-002
	-4.997379413897250e+000,2.467505034971396e-002
40		1.319507910772898e+000,0.000000000000000e+000
	1.000000000000000e+001,-6.938893903907228e-018
	9.994755426358871e+000,-4.969334088357994e-002
	4.997377713179431e+000,-2.484667044187305e-002
	4.997377713179436e+000,-2.484667044178997e-002
	-4.997377713179425e+000,2.484667044186040e-002
41		1.328685814096515e+000,0.000000000000000e+000
	1.000000000000000e+001,-6.938893903907228e-018
	9.994751977443263e+000,-5.003896813650197e-002
	4.997375988721628e+000,-2.501948406802629e-002
	4.997375988721632e+000,-2.501948406825099e-002
	-4.997375988721639e+000,2.501948406816723e-002
42		1.337927554786116e+000,0.000000000000000e+000
	9.999999999999998e+000,0.000000000000000e+000
	9.994748480385010e+000,-5.038699905427629e-002
	4.997374240192511e+000,-2.519349952722427e-002
	4.997374240192505e+000,-2.519349952713814e-002
	-4.997374240192513e+000,2.519349952720517e-002
43		1.347233576865694e+000,0.000000000000000e+000
	1.000000000000000e+001,6.938893903907228e-018
	9.994744934512148e+000,-5.073745034809201e-002
	4.997372467256066e+000,-2.536872517401922e-002
	4.997372467256074e+000,-2.536872517404601e-002
	-4.997372467256067e+000,2.536872517410416e-002
44		1.356604327447676e+000,0.000000000000000e+000
	1.000000000000000e+001,0.000000000000000e+000
	9.994741339143312e+000,-5.109033884521261e-002
	4.997370669571656e+000,-2.554516942264706e-002
	4.997370669571656e+000,-2.554516942260630e-002
	-4.997370669571666e+000,2.554516942268492e-002
45		1.366040256754400e+000,0.000000000000000e+000
	1.000000000000000e+001,0.000000000000000e+000
	9.994737693587638e+000,-5.144568148978124e-002
	4.997368846793843e+000,-2.572284074502568e-002
	4.997368846793819e+000,-2.572284074489062e-002
	-4.997368846793843e+000,2.572284074489061e-002
46		1.375541818139749e+000,0.000000000000000e+000
	9.999999999999998e+000,0.000000000000000e+000
	9.994733997144619e+000,-5.180349534362929e-002
	4.997366998572300e+000,-2.590174767175490e-002
	4.997366998572310e+000,-2.590174767181465e-002
	-4.997366998572304e+000,2.590174767192366e-002
47		1.385109468110930e+000,0.000000000000000e+000
	1.000000000000000e+001,6.938893903907228e-018
	9.994730249103974e+000,-5.216379758709325e-002
	4.997365124551997e+000,-2.608189879356831e-002
	4.997365124551987e+000,-2.608189879354662e-002
	-4.997365124552005e+000,2.608189879367729e-002
48		1.394743666350411e+000,0.000000000000000e+000
	1.000000000000000e+001,0.000000000000000e+000
	9.994726448745496e+000,-5.252660551983299e-002
	4.997363224372742e+000,-2.626330275992789e-002
	4.997363224372748e+000,-2.626330275991649e-002
	-4.997363224372736e+000,2.626330275973032e-002
49		1.404444875738002e+000,0.000000000000000e+000
	1.000000000000000e+001,-6.938893903907228e-018
	9.994722595338942e+000,-5.289193656166064e-002
	4.997361297669495e+000,-2.644596828096418e-002
	4.997361297669471e+000,-2.644596828083032e-002
	-4.997361297669477e+000,2.644596828091039e-002
50		1.414213562373101e+000,0.000000000000000e+000
	1.000000000000000e+001,-6.938893903907228e-018
	9.994718688143873e+000,-5.325980825336988e-002
	4.997359344071941e+000,-2.662990412674782e-002
	4.997359344071937e+000,-2.662990412668494e-002
	-4.997359344071928e+000,2.662990412673594e-002
51		1.424050195597077e+000,0.000000000000000e+000
	1.000000000000000e+001,6.938893903907228e-018
	9.994714726409514e+000,-5.363023825757610e-002
	4.997357363204753e+000,-2.681511912884410e-002
	4.997357363204757e+000,-2.681511912878805e-002
	-4.997357363204743e+000,2.681511912868473e-002
52		1.433955248015833e+000,0.000000000000000e+000
	9.999999999999998e+000,0.000000000000000e+000
	9.994710709374605e+000,-5.400324435955852e-002
	4.997355354687317e+000,-2.700162217988533e-002
	4.997355354687302e+000,-2.700162217977926e-002
	-4.997355354687318e+000,2.700162217990964e-002
53		1.443929195522502e+000,0.000000000000000e+000
	1.000000000000000e+001,0.000000000000000e+000
	9.994706636267281e+000,-5.437884446810912e-002
	4.997353318133647e+000,-2.718942223411752e-002
	4.997353318133641e+000,-2.718942223405456e-002
	-4.997353318133637e+000,2.718942223410181e-002
54		1.453972517320317e+000,0.000000000000000e+000
	1.000000000000000e+001,6.938893903907228e-018
	9.994702506304886e+000,-5.475705661638852e-002
	4.997351253152425e+000,-2.737852830823662e-002
	4.997351253152443e+000,-2.737852830819426e-002
	-4.997351253152411e+000,2.737852830819065e-002
55		1.464085695945632e+000,0.000000000000000e+000
	1.000000000000000e+001,6.938893903907228e-018
	9.994698318693851e+000,-5.513789896278736e-002
	4.997349159346910e+000,-2.756894948122923e-002
	4.997349159346926e+000,-2.756894948139368e-002
	-4.997349159346918e+000,2.756894948120703e-002
56		1.474269217291108e+000,0.000000000000000e+000
	9.999999999999998e+000,0.000000000000000e+000
	9.994694072629523e+000,-5.552138979179083e-002
	4.997347036314753e+000,-2.776069489581834e-002
	4.997347036314761e+000,-2.776069489589541e-002
	-4.997347036314740e+000,2.776069489584643e-002
57		1.484523570629056e+000,0.000000000000000e+000
	1.000000000000000e+001,6.938893903907228e-018
	9.994689767296030e+000,-5.590754751485390e-002
	4.997344883648021e+000,-2.795377375759839e-002
	4.997344883648015e+000,-2.795377375742695e-002
	-4.997344883648013e+000,2.795377375761632e-002
58		1.494849248634945e+000,0.000000000000000e+000
	1.000000000000000e+001,0.000000000000000e+000
	9.994685401866112e+000,-5.629639067127906e-002
	4.997342700933046e+000,-2.814819533562807e-002
	4.997342700933056e+000,-2.814819533563953e-002
	-4.997342700933052e+000,2.814819533568880e-002
59		1.505246747411074e+000,0.000000000000000e+000
	1.000000000000000e+001,6.938893903907228e-018
	9.994680975500955e+000,-5.668793792910076e-002
	4.997340487750469e+000,-2.834396896453117e-002
	4.997340487750478e+000,-2.834396896455038e-002
	-4.997340487750473e+000,2.834396896460590e-002
60		1.515716566510405e+000,0.000000000000000e+000
	9.999999999999998e+000,0.000000000000000e+000
	9.994676487350045e+000,-5.708220808597674e-002
	4.997338243675022e+000,-2.854110404294086e-002
	4.997338243675022e+000,-2.854110404298837e-002
	-4.997338243675022e+000,2.854110404300058e-002
61		1.526259208960566e+000,0.000000000000000e+000
	9.999999999999998e+000,-6.938893903907228e-018
	9.994671936551001e+000,-5.747922007008452e-002
	4.997335968275499e+000,-2.873961003490633e-002
	4.997335968275500e+000,-2.873961003504226e-002
	-4.997335968275499e+000,2.873961003501790e-002
62		1.536875181288020e+000,0.000000000000000e+000
	1.000000000000000e+001,-6.938893903907228e-018
	9.994667322229402e+000,-5.787899294102464e-002
	4.997333661114685e+000,-2.893949647030253e-002
	4.997333661114701e+000,-2.893949647051232e-002
	-4.997333661114691e+000,2.893949647031491e-002
63		1.547564993542397e+000,0.000000000000000e+000
	1.000000000000000e+001,0.000000000000000e+000
	9.994662643498618e+000,-5.828154589073029e-002
	4.997331321749328e+000,-2.914077294550027e-002
	4.997331321749309e+000,-2.914077294536514e-002
	-4.997331321749323e+000,2.914077294548179e-002
64		1.558329159321007e+000,0.000000000000000e+000
	1.000000000000000e+001,-6.938893903907228e-018
	9.994657899459666e+000,-5.868689824438211e-002
	4.997328949729844e+000,-2.934344912218928e-002
	4.997328949729833e+000,-2.934344912219105e-002
	-4.997328949729845e+000,2.934344912233655e-002
65		1.569168195793509e+000,0.000000000000000e+000
	1.000000000000000e+001,6.938893903907228e-018
	9.994653089200991e+000,-5.909506946133000e-002
	4.997326544600508e+000,-2.954753473068744e-002
	4.997326544600496e+000,-2.954753473066500e-002
	-4.997326544600505e+000,2.954753473076721e-002
66		1.580082623726762e+000,0.000000000000000e+000
	1.000000000000000e+001,0.000000000000000e+000
	9.994648211798337e+000,-5.950607913602149e-002
	4.997324105899168e+000,-2.975303956805026e-002
	4.997324105899168e+000,-2.975303956801075e-002
	-4.997324105899165e+000,2.975303956802122e-002
67		1.591072967509845e+000,0.000000000000000e+000
	9.999999999999998e+000,-6.938893903907228e-018
	9.994643266314538e+000,-5.991994699893629e-002
	4.997321633157275e+000,-2.995997349945806e-002
	4.997321633157269e+000,-2.995997349946815e-002
	-4.997321633157278e+000,2.995997349941603e-002
68		1.602139755179252e+000,0.000000000000000e+000
	9.999999999999998e+000,-6.938893903907228e-018
	9.994638251799358e+000,-6.033669291752571e-002
	4.997319125899660e+000,-3.016834645864785e-002
	4.997319125899679e+000,-3.016834645876286e-002
	-4.997319125899668e+000,3.016834645862332e-002
69		1.613283518444261e+000,0.000000000000000e+000
	1.000000000000000e+001,-6.938893903907228e-018
	9.994633167289294e+000,-6.075633689716199e-002
	4.997316583644632e+000,-3.037816844841063e-002
	4.997316583644647e+000,-3.037816844858099e-002
	-4.997316583644631e+000,3.037816844837948e-002
70		1.624504792712480e+000,0.000000000000000e+000
	1.000000000000000e+001,0.000000000000000e+000
	9.994628011807393e+000,-6.117889908208969e-002
	4.997314005903700e+000,-3.058944954105841e-002
	4.997314005903697e+000,-3.058944954104485e-002
	-4.997314005903704e+000,3.058944954105414e-002
71		1.635804117115571e+000,0.000000000000000e+000
	1.000000000000000e+001,0.000000000000000e+000
	9.994622784363077e+000,-6.160439975638755e-002
	4.997311392181555e+000,-3.080219987823168e-002
	4.997311392181539e+000,-3.080219987819378e-002
	-4.997311392181550e+000,3.080219987808164e-002
72		1.647182034535156e+000,0.000000000000000e+000
	9.999999999999998e+000,-6.938893903907228e-018
	9.994617483951940e+000,-6.203285934493402e-002
	4.997308741975964e+000,-3.101642967239432e-002
	4.997308741975970e+000,-3.101642967246701e-002
	-4.997308741975965e+000,3.101642967237694e-002
73		1.658639091628893e+000,0.000000000000000e+000
	1.000000000000000e+001,0.000000000000000e+000
	9.994612109555565e+000,-6.246429841438181e-002
	4.997306054777768e+000,-3.123214920707629e-002
	4.997306054777782e+000,-3.123214920719090e-002
	-4.997306054777768e+000,3.123214920705664e-002
74		1.670175838856749e+000,0.000000000000000e+000
	9.999999999999998e+000,1.387778780781446e-017
	9.994606660141308e+000,-6.289873767413701e-002
	4.997303330070664e+000,-3.144936883707233e-002
	4.997303330070654e+000,-3.144936883706850e-002
	-4.997303330070658e+000,3.144936883700211e-002
75		1.681792830507439e+000,0.000000000000000e+000
	9.999999999999998e+000,-1.387778780781446e-017
	9.994601134662135e+000,-6.333619797734530e-002
	4.997300567331060e+000,-3.166809898857664e-002
	4.997300567331068e+000,-3.166809898867265e-002
	-4.997300567331058e+000,3.166809898857537e-002
76		1.693490624725065e+000,0.000000000000000e+000
	1.000000000000000e+001,0.000000000000000e+000
	9.994595532056383e+000,-6.377670032188684e-002
	4.997297766028210e+000,-3.188835016104435e-002
	4.997297766028192e+000,-3.188835016094342e-002
	-4.997297766028215e+000,3.188835016118219e-002
77		1.705269783535924e+000,0.000000000000000e+000
	9.999999999999998e+000,0.000000000000000e+000
	9.994589851247584e+000,-6.422026585137476e-002
	4.997294925623797e+000,-3.211013292564724e-002
	4.997294925623792e+000,-3.211013292568738e-002
	-4.997294925623804e+000,3.211013292556685e-002
78		1.717130872875518e+000,0.000000000000000e+000
	9.999999999999998e+000,0.000000000000000e+000
	9.994584091144242e+000,-6.466691585616342e-002
	4.997292045572128e+000,-3.233345792807824e-002
	4.997292045572121e+000,-3.233345792808171e-002
	-4.997292045572133e+000,3.233345792821751e-002
79		1.729074462615741e+000,0.000000000000000e+000
	1.000000000000000e+001,0.000000000000000e+000
	9.994578250639636e+000,-6.511667177436148e-002
	4.997289125319814e+000,-3.255833588713181e-002
	4.997289125319818e+000,-3.255833588718074e-002
	-4.997289125319817e+000,3.255833588724499e-002
80		1.741101126592259e+000,0.000000000000000e+000
	1.000000000000000e+001,0.000000000000000e+000
	9.994572328611591e+000,-6.556955519285312e-002
	4.997286164305787e+000,-3.278477759636522e-002
	4.997286164305796e+000,-3.278477759642656e-002
	-4.997286164305778e+000,3.278477759636189e-002
81		1.753211442632082e+000,0.000000000000000e+000
	1.000000000000000e+001,0.000000000000000e+000
	9.994566323922282e+000,-6.602558784832556e-002
	4.997283161961147e+000,-3.301279392416184e-002
	4.997283161961141e+000,-3.301279392416278e-002
	-4.997283161961149e+000,3.301279392417201e-002
82		1.765405992581321e+000,0.000000000000000e+000
	1.000000000000000e+001,0.000000000000000e+000
	9.994560235417998e+000,-6.648479162830331e-002
	4.997280117709009e+000,-3.324239581412458e-002
	4.997280117708999e+000,-3.324239581415166e-002
	-4.997280117709018e+000,3.324239581417032e-002
83		1.777685362333152e+000,0.000000000000000e+000
	1.000000000000000e+001,1.387778780781446e-017
	9.994554061928938e+000,-6.694718857219034e-002
	4.997277030964463e+000,-3.347359428616864e-002
	4.997277030964469e+000,-3.347359428609517e-002
	-4.997277030964461e+000,3.347359428616414e-002
84		1.790050141855957e+000,0.000000000000000e+000
	9.999999999999998e+000,0.000000000000000e+000
	9.994547802268965e+000,-6.741280087232000e-002
	4.997273901134480e+000,-3.370640043618667e-002
	4.997273901134482e+000,-3.370640043616000e-002
	-4.997273901134473e+000,3.370640043613093e-002
85		1.802500925221673e+000,0.000000000000000e+000
	1.000000000000000e+001,0.000000000000000e+000
	9.994541455235407e+000,-6.788165087500880e-002
	4.997270727617712e+000,-3.394082543748933e-002
	4.997270727617703e+000,-3.394082543750440e-002
	-4.997270727617718e+000,3.394082543763943e-002
86		1.815038310634334e+000,0.000000000000000e+000
	1.000000000000000e+001,0.000000000000000e+000
	9.994535019608788e+000,-6.835376108162053e-002
	4.997267509804405e+000,-3.417688054093399e-002
	4.997267509804394e+000,-3.417688054081026e-002
	-4.997267509804403e+000,3.417688054085488e-002
87		1.827662900458814e+000,0.000000000000000e+000
	9.999999999999998e+000,0.000000000000000e+000
	9.994528494152636e+000,-6.882915414963774e-002
	4.997264247076310e+000,-3.441457707471018e-002
	4.997264247076318e+000,-3.441457707481887e-002
	-4.997264247076315e+000,3.441457707481276e-002
88		1.840375301249763e+000,0.000000000000000e+000
	1.000000000000000e+001,0.000000000000000e+000
	9.994521877613209e+000,-6.930785289373784e-002
	4.997260938806607e+000,-3.465392644686993e-002
	4.997260938806605e+000,-3.465392644686892e-002
	-4.997260938806614e+000,3.465392644685039e-002
89		1.853176123780755e+000,0.000000000000000e+000
	9.999999999999998e+000,0.000000000000000e+000
	9.994515168719277e+000,-6.978988028687876e-002
	4.997257584359646e+000,-3.489494014348471e-002
	4.997257584359638e+000,-3.489494014343938e-002
	-4.997257584359653e+000,3.489494014345950e-002
90		1.866065983073628e+000,0.000000000000000e+000
	1.000000000000000e+001,0.000000000000000e+000
	9.994508366181876e+000,-7.027525946139132e-002
	4.997254183090946e+000,-3.513762973068979e-002
	4.997254183090938e+000,-3.513762973069566e-002
	-4.997254183090947e+000,3.513762973071266e-002
91		1.879045498428037e+000,0.000000000000000e+000
	1.000000000000000e+001,0.000000000000000e+000
	9.994501468694045e+000,-7.076401371007873e-002
	4.997250734347015e+000,-3.538200685493709e-002
	4.997250734347023e+000,-3.538200685503937e-002
	-4.997250734347017e+000,3.538200685497373e-002
92		1.892115293451206e+000,0.000000000000000e+000
	1.000000000000000e+001,0.000000000000000e+000
	9.994494474930590e+000,-7.125616648732444e-002
	4.997247237465298e+000,-3.562808324363759e-002
	4.997247237465295e+000,-3.562808324366222e-002
	-4.997247237465308e+000,3.562808324360844e-002
93		1.905275996087889e+000,0.000000000000000e+000
	1.000000000000000e+001,0.000000000000000e+000
	9.994487383547831e+000,-7.175174141020591e-002
	4.997243691773913e+000,-3.587587070507831e-002
	4.997243691773916e+000,-3.587587070510295e-002
	-4.997243691773914e+000,3.587587070498444e-002
94		1.918528238650543e+000,0.000000000000000e+000
	1.000000000000000e+001,0.000000000000000e+000
	9.994480193183332e+000,-7.225076225961802e-002
	4.997240096591668e+000,-3.612538112982433e-002
	4.997240096591666e+000,-3.612538112980901e-002
	-4.997240096591663e+000,3.612538112975016e-002
95		1.931872657849706e+000,0.000000000000000e+000
	1.000000000000000e+001,1.387778780781446e-017
	9.994472902455648e+000,-7.275325298140219e-002
	4.997236451227837e+000,-3.637662649076467e-002
	4.997236451227824e+000,-3.637662649070109e-002
	-4.997236451227832e+000,3.637662649069285e-002
96		1.945309894824586e+000,0.000000000000000e+000
	9.999999999999998e+000,0.000000000000000e+000
	9.994465509964060e+000,-7.325923768748381e-002
	4.997232754982020e+000,-3.662961884365223e-002
	4.997232754982030e+000,-3.662961884374191e-002
	-4.997232754982023e+000,3.662961884373316e-002
97		1.958840595173869e+000,0.000000000000000e+000
	1.000000000000000e+001,0.000000000000000e+000
	9.994458014288302e+000,-7.376874065701895e-002
	4.997229007144161e+000,-3.688437032859210e-002
	4.997229007144151e+000,-3.688437032850948e-002
	-4.997229007144153e+000,3.688437032849379e-002
98		1.972465408986734e+000,0.000000000000000e+000
	1.000000000000000e+001,0.000000000000000e+000
	9.994450413988290e+000,-7.428178633754530e-002
	4.997225206994139e+000,-3.714089316876446e-002
	4.997225206994145e+000,-3.714089316877265e-002
	-4.997225206994137e+000,3.714089316872560e-002
99		1.986184990874087e+000,0.000000000000000e+000
	1.000000000000000e+001,0.000000000000000e+000
	9.994442707603843e+000,-7.479839934614500e-002
	4.997221353801916e+000,-3.739919967308847e-002
	4.997221353801922e+000,-3.739919967307250e-002
	-4.997221353801918e+000,3.739919967316042e-002
100		2.000000000000016e+000,0.000000000000000e+000
	1.000000000000000e+001,0.000000000000000e+000
	9.994434893654413e+000,-7.531860447061209e-002
	4.997217446827202e+000,-3.765930223528202e-002
	4.997217446827206e+000,-3.765930223530604e-002
	-4.997217446827200e+000,3.765930223536884e-002
101		2.013911100113454e+000,0.000000000000000e+000
	1.000000000000000e+001,1.387778780781446e-017
	9.994426970638790e+000,-7.584242667062950e-002
	4.997213485319393e+000,-3.792121333528592e-002
	4.997213485319395e+000,-3.792121333531475e-002
	-4.997213485319394e+000,3.792121333532350e-002
102		2.027918959580075e+000,0.000000000000000e+000